512
Step: 0
Ar 1.39557e-17 1.39557e-17 1.39557e-17
Ar 1.49348e-17 1.49348e-17 10
Ar 1.49804e-17 1.49804e-17 20
Ar 1.49859e-17 1.49859e-17 30
Ar 1.49859e-17 1.49859e-17 40
Ar 1.49804e-17 1.49804e-17 50
Ar 1.49348e-17 1.49348e-17 60
Ar 1.39557e-17 1.39557e-17 70
Ar 1.49348e-17 10 1.49348e-17
Ar 1.60836e-17 10 10
Ar 1.61434e-17 10 20
Ar 1.61506e-17 10 30
Ar 1.61506e-17 10 40
Ar 1.61434e-17 10 50
Ar 1.60836e-17 10 60
Ar 1.49348e-17 10 70
Ar 1.49804e-17 20 1.49804e-17
Ar 1.61434e-17 20 10
Ar 1.62068e-17 20 20
Ar 1.62148e-17 20 30
Ar 1.62148e-17 20 40
Ar 1.62068e-17 20 50
Ar 1.61434e-17 20 60
Ar 1.49804e-17 20 70
Ar 1.49859e-17 30 1.49859e-17
Ar 1.61506e-17 30 10
Ar 1.62148e-17 30 20
Ar 1.62231e-17 30 30
Ar 1.62231e-17 30 40
Ar 1.62148e-17 30 50
Ar 1.61506e-17 30 60
Ar 1.49859e-17 30 70
Ar 1.49859e-17 40 1.49859e-17
Ar 1.61506e-17 40 10
Ar 1.62148e-17 40 20
Ar 1.62231e-17 40 30
Ar 1.62231e-17 40 40
Ar 1.62148e-17 40 50
Ar 1.61506e-17 40 60
Ar 1.49859e-17 40 70
Ar 1.49804e-17 50 1.49804e-17
Ar 1.61434e-17 50 10
Ar 1.62068e-17 50 20
Ar 1.62148e-17 50 30
Ar 1.62148e-17 50 40
Ar 1.62068e-17 50 50
Ar 1.61434e-17 50 60
Ar 1.49804e-17 50 70
Ar 1.49348e-17 60 1.49348e-17
Ar 1.60836e-17 60 10
Ar 1.61434e-17 60 20
Ar 1.61506e-17 60 30
Ar 1.61506e-17 60 40
Ar 1.61434e-17 60 50
Ar 1.60836e-17 60 60
Ar 1.49348e-17 60 70
Ar 1.39557e-17 70 1.39557e-17
Ar 1.49348e-17 70 10
Ar 1.49804e-17 70 20
Ar 1.49859e-17 70 30
Ar 1.49859e-17 70 40
Ar 1.49804e-17 70 50
Ar 1.49348e-17 70 60
Ar 1.39557e-17 70 70
Ar 10 1.49348e-17 1.49348e-17
Ar 10 1.60836e-17 10
Ar 10 1.61434e-17 20
Ar 10 1.61506e-17 30
Ar 10 1.61506e-17 40
Ar 10 1.61434e-17 50
Ar 10 1.60836e-17 60
Ar 10 1.49348e-17 70
Ar 10 10 1.60836e-17
Ar 10 10 10
Ar 10 10 20
Ar 10 10 30
Ar 10 10 40
Ar 10 10 50
Ar 10 10 60
Ar 10 10 70
Ar 10 20 1.61434e-17
Ar 10 20 10
Ar 10 20 20
Ar 10 20 30
Ar 10 20 40
Ar 10 20 50
Ar 10 20 60
Ar 10 20 70
Ar 10 30 1.61506e-17
Ar 10 30 10
Ar 10 30 20
Ar 10 30 30
Ar 10 30 40
Ar 10 30 50
Ar 10 30 60
Ar 10 30 70
Ar 10 40 1.61506e-17
Ar 10 40 10
Ar 10 40 20
Ar 10 40 30
Ar 10 40 40
Ar 10 40 50
Ar 10 40 60
Ar 10 40 70
Ar 10 50 1.61434e-17
Ar 10 50 10
Ar 10 50 20
Ar 10 50 30
Ar 10 50 40
Ar 10 50 50
Ar 10 50 60
Ar 10 50 70
Ar 10 60 1.60836e-17
Ar 10 60 10
Ar 10 60 20
Ar 10 60 30
Ar 10 60 40
Ar 10 60 50
Ar 10 60 60
Ar 10 60 70
Ar 10 70 1.49348e-17
Ar 10 70 10
Ar 10 70 20
Ar 10 70 30
Ar 10 70 40
Ar 10 70 50
Ar 10 70 60
Ar 10 70 70
Ar 20 1.49804e-17 1.49804e-17
Ar 20 1.61434e-17 10
Ar 20 1.62068e-17 20
Ar 20 1.62148e-17 30
Ar 20 1.62148e-17 40
Ar 20 1.62068e-17 50
Ar 20 1.61434e-17 60
Ar 20 1.49804e-17 70
Ar 20 10 1.61434e-17
Ar 20 10 10
Ar 20 10 20
Ar 20 10 30
Ar 20 10 40
Ar 20 10 50
Ar 20 10 60
Ar 20 10 70
Ar 20 20 1.62068e-17
Ar 20 20 10
Ar 20 20 20
Ar 20 20 30
Ar 20 20 40
Ar 20 20 50
Ar 20 20 60
Ar 20 20 70
Ar 20 30 1.62148e-17
Ar 20 30 10
Ar 20 30 20
Ar 20 30 30
Ar 20 30 40
Ar 20 30 50
Ar 20 30 60
Ar 20 30 70
Ar 20 40 1.62148e-17
Ar 20 40 10
Ar 20 40 20
Ar 20 40 30
Ar 20 40 40
Ar 20 40 50
Ar 20 40 60
Ar 20 40 70
Ar 20 50 1.62068e-17
Ar 20 50 10
Ar 20 50 20
Ar 20 50 30
Ar 20 50 40
Ar 20 50 50
Ar 20 50 60
Ar 20 50 70
Ar 20 60 1.61434e-17
Ar 20 60 10
Ar 20 60 20
Ar 20 60 30
Ar 20 60 40
Ar 20 60 50
Ar 20 60 60
Ar 20 60 70
Ar 20 70 1.49804e-17
Ar 20 70 10
Ar 20 70 20
Ar 20 70 30
Ar 20 70 40
Ar 20 70 50
Ar 20 70 60
Ar 20 70 70
Ar 30 1.49859e-17 1.49859e-17
Ar 30 1.61506e-17 10
Ar 30 1.62148e-17 20
Ar 30 1.62231e-17 30
Ar 30 1.62231e-17 40
Ar 30 1.62148e-17 50
Ar 30 1.61506e-17 60
Ar 30 1.49859e-17 70
Ar 30 10 1.61506e-17
Ar 30 10 10
Ar 30 10 20
Ar 30 10 30
Ar 30 10 40
Ar 30 10 50
Ar 30 10 60
Ar 30 10 70
Ar 30 20 1.62148e-17
Ar 30 20 10
Ar 30 20 20
Ar 30 20 30
Ar 30 20 40
Ar 30 20 50
Ar 30 20 60
Ar 30 20 70
Ar 30 30 1.62231e-17
Ar 30 30 10
Ar 30 30 20
Ar 30 30 30
Ar 30 30 40
Ar 30 30 50
Ar 30 30 60
Ar 30 30 70
Ar 30 40 1.62231e-17
Ar 30 40 10
Ar 30 40 20
Ar 30 40 30
Ar 30 40 40
Ar 30 40 50
Ar 30 40 60
Ar 30 40 70
Ar 30 50 1.62148e-17
Ar 30 50 10
Ar 30 50 20
Ar 30 50 30
Ar 30 50 40
Ar 30 50 50
Ar 30 50 60
Ar 30 50 70
Ar 30 60 1.61506e-17
Ar 30 60 10
Ar 30 60 20
Ar 30 60 30
Ar 30 60 40
Ar 30 60 50
Ar 30 60 60
Ar 30 60 70
Ar 30 70 1.49859e-17
Ar 30 70 10
Ar 30 70 20
Ar 30 70 30
Ar 30 70 40
Ar 30 70 50
Ar 30 70 60
Ar 30 70 70
Ar 40 1.49859e-17 1.49859e-17
Ar 40 1.61506e-17 10
Ar 40 1.62148e-17 20
Ar 40 1.62231e-17 30
Ar 40 1.62231e-17 40
Ar 40 1.62148e-17 50
Ar 40 1.61506e-17 60
Ar 40 1.49859e-17 70
Ar 40 10 1.61506e-17
Ar 40 10 10
Ar 40 10 20
Ar 40 10 30
Ar 40 10 40
Ar 40 10 50
Ar 40 10 60
Ar 40 10 70
Ar 40 20 1.62148e-17
Ar 40 20 10
Ar 40 20 20
Ar 40 20 30
Ar 40 20 40
Ar 40 20 50
Ar 40 20 60
Ar 40 20 70
Ar 40 30 1.62231e-17
Ar 40 30 10
Ar 40 30 20
Ar 40 30 30
Ar 40 30 40
Ar 40 30 50
Ar 40 30 60
Ar 40 30 70
Ar 40 40 1.62231e-17
Ar 40 40 10
Ar 40 40 20
Ar 40 40 30
Ar 40 40 40
Ar 40 40 50
Ar 40 40 60
Ar 40 40 70
Ar 40 50 1.62148e-17
Ar 40 50 10
Ar 40 50 20
Ar 40 50 30
Ar 40 50 40
Ar 40 50 50
Ar 40 50 60
Ar 40 50 70
Ar 40 60 1.61506e-17
Ar 40 60 10
Ar 40 60 20
Ar 40 60 30
Ar 40 60 40
Ar 40 60 50
Ar 40 60 60
Ar 40 60 70
Ar 40 70 1.49859e-17
Ar 40 70 10
Ar 40 70 20
Ar 40 70 30
Ar 40 70 40
Ar 40 70 50
Ar 40 70 60
Ar 40 70 70
Ar 50 1.49804e-17 1.49804e-17
Ar 50 1.61434e-17 10
Ar 50 1.62068e-17 20
Ar 50 1.62148e-17 30
Ar 50 1.62148e-17 40
Ar 50 1.62068e-17 50
Ar 50 1.61434e-17 60
Ar 50 1.49804e-17 70
Ar 50 10 1.61434e-17
Ar 50 10 10
Ar 50 10 20
Ar 50 10 30
Ar 50 10 40
Ar 50 10 50
Ar 50 10 60
Ar 50 10 70
Ar 50 20 1.62068e-17
Ar 50 20 10
Ar 50 20 20
Ar 50 20 30
Ar 50 20 40
Ar 50 20 50
Ar 50 20 60
Ar 50 20 70
Ar 50 30 1.62148e-17
Ar 50 30 10
Ar 50 30 20
Ar 50 30 30
Ar 50 30 40
Ar 50 30 50
Ar 50 30 60
Ar 50 30 70
Ar 50 40 1.62148e-17
Ar 50 40 10
Ar 50 40 20
Ar 50 40 30
Ar 50 40 40
Ar 50 40 50
Ar 50 40 60
Ar 50 40 70
Ar 50 50 1.62068e-17
Ar 50 50 10
Ar 50 50 20
Ar 50 50 30
Ar 50 50 40
Ar 50 50 50
Ar 50 50 60
Ar 50 50 70
Ar 50 60 1.61434e-17
Ar 50 60 10
Ar 50 60 20
Ar 50 60 30
Ar 50 60 40
Ar 50 60 50
Ar 50 60 60
Ar 50 60 70
Ar 50 70 1.49804e-17
Ar 50 70 10
Ar 50 70 20
Ar 50 70 30
Ar 50 70 40
Ar 50 70 50
Ar 50 70 60
Ar 50 70 70
Ar 60 1.49348e-17 1.49348e-17
Ar 60 1.60836e-17 10
Ar 60 1.61434e-17 20
Ar 60 1.61506e-17 30
Ar 60 1.61506e-17 40
Ar 60 1.61434e-17 50
Ar 60 1.60836e-17 60
Ar 60 1.49348e-17 70
Ar 60 10 1.60836e-17
Ar 60 10 10
Ar 60 10 20
Ar 60 10 30
Ar 60 10 40
Ar 60 10 50
Ar 60 10 60
Ar 60 10 70
Ar 60 20 1.61434e-17
Ar 60 20 10
Ar 60 20 20
Ar 60 20 30
Ar 60 20 40
Ar 60 20 50
Ar 60 20 60
Ar 60 20 70
Ar 60 30 1.61506e-17
Ar 60 30 10
Ar 60 30 20
Ar 60 30 30
Ar 60 30 40
Ar 60 30 50
Ar 60 30 60
Ar 60 30 70
Ar 60 40 1.61506e-17
Ar 60 40 10
Ar 60 40 20
Ar 60 40 30
Ar 60 40 40
Ar 60 40 50
Ar 60 40 60
Ar 60 40 70
Ar 60 50 1.61434e-17
Ar 60 50 10
Ar 60 50 20
Ar 60 50 30
Ar 60 50 40
Ar 60 50 50
Ar 60 50 60
Ar 60 50 70
Ar 60 60 1.60836e-17
Ar 60 60 10
Ar 60 60 20
Ar 60 60 30
Ar 60 60 40
Ar 60 60 50
Ar 60 60 60
Ar 60 60 70
Ar 60 70 1.49348e-17
Ar 60 70 10
Ar 60 70 20
Ar 60 70 30
Ar 60 70 40
Ar 60 70 50
Ar 60 70 60
Ar 60 70 70
Ar 70 1.39557e-17 1.39557e-17
Ar 70 1.49348e-17 10
Ar 70 1.49804e-17 20
Ar 70 1.49859e-17 30
Ar 70 1.49859e-17 40
Ar 70 1.49804e-17 50
Ar 70 1.49348e-17 60
Ar 70 1.39557e-17 70
Ar 70 10 1.49348e-17
Ar 70 10 10
Ar 70 10 20
Ar 70 10 30
Ar 70 10 40
Ar 70 10 50
Ar 70 10 60
Ar 70 10 70
Ar 70 20 1.49804e-17
Ar 70 20 10
Ar 70 20 20
Ar 70 20 30
Ar 70 20 40
Ar 70 20 50
Ar 70 20 60
Ar 70 20 70
Ar 70 30 1.49859e-17
Ar 70 30 10
Ar 70 30 20
Ar 70 30 30
Ar 70 30 40
Ar 70 30 50
Ar 70 30 60
Ar 70 30 70
Ar 70 40 1.49859e-17
Ar 70 40 10
Ar 70 40 20
Ar 70 40 30
Ar 70 40 40
Ar 70 40 50
Ar 70 40 60
Ar 70 40 70
Ar 70 50 1.49804e-17
Ar 70 50 10
Ar 70 50 20
Ar 70 50 30
Ar 70 50 40
Ar 70 50 50
Ar 70 50 60
Ar 70 50 70
Ar 70 60 1.49348e-17
Ar 70 60 10
Ar 70 60 20
Ar 70 60 30
Ar 70 60 40
Ar 70 60 50
Ar 70 60 60
Ar 70 60 70
Ar 70 70 1.39557e-17
Ar 70 70 10
Ar 70 70 20
Ar 70 70 30
Ar 70 70 40
Ar 70 70 50
Ar 70 70 60
Ar 70 70 70
512
Step: 100
Ar 1.42362e-13 1.42362e-13 1.42362e-13
Ar 1.52349e-13 1.52349e-13 10
Ar 1.52815e-13 1.52815e-13 20
Ar 1.52871e-13 1.52871e-13 30
Ar 1.52871e-13 1.52871e-13 40
Ar 1.52815e-13 1.52815e-13 50
Ar 1.52349e-13 1.52349e-13 60
Ar 1.42362e-13 1.42362e-13 70
Ar 1.52349e-13 10 1.52349e-13
Ar 1.64068e-13 10 10
Ar 1.64679e-13 10 20
Ar 1.64752e-13 10 30
Ar 1.64752e-13 10 40
Ar 1.64679e-13 10 50
Ar 1.64068e-13 10 60
Ar 1.52349e-13 10 70
Ar 1.52815e-13 20 1.52815e-13
Ar 1.64679e-13 20 10
Ar 1.65326e-13 20 20
Ar 1.65407e-13 20 30
Ar 1.65407e-13 20 40
Ar 1.65326e-13 20 50
Ar 1.64679e-13 20 60
Ar 1.52815e-13 20 70
Ar 1.52871e-13 30 1.52871e-13
Ar 1.64752e-13 30 10
Ar 1.65407e-13 30 20
Ar 1.65492e-13 30 30
Ar 1.65492e-13 30 40
Ar 1.65407e-13 30 50
Ar 1.64752e-13 30 60
Ar 1.52871e-13 30 70
Ar 1.52871e-13 40 1.52871e-13
Ar 1.64752e-13 40 10
Ar 1.65407e-13 40 20
Ar 1.65492e-13 40 30
Ar 1.65492e-13 40 40
Ar 1.65407e-13 40 50
Ar 1.64752e-13 40 60
Ar 1.52871e-13 40 70
Ar 1.52815e-13 50 1.52815e-13
Ar 1.64679e-13 50 10
Ar 1.65326e-13 50 20
Ar 1.65407e-13 50 30
Ar 1.65407e-13 50 40
Ar 1.65326e-13 50 50
Ar 1.64679e-13 50 60
Ar 1.52815e-13 50 70
Ar 1.52349e-13 60 1.52349e-13
Ar 1.64068e-13 60 10
Ar 1.64679e-13 60 20
Ar 1.64752e-13 60 30
Ar 1.64752e-13 60 40
Ar 1.64679e-13 60 50
Ar 1.64068e-13 60 60
Ar 1.52349e-13 60 70
Ar 1.42362e-13 70 1.42362e-13
Ar 1.52349e-13 70 10
Ar 1.52815e-13 70 20
Ar 1.52871e-13 70 30
Ar 1.52871e-13 70 40
Ar 1.52815e-13 70 50
Ar 1.52349e-13 70 60
Ar 1.42362e-13 70 70
Ar 10 1.52349e-13 1.52349e-13
Ar 10 1.64068e-13 10
Ar 10 1.64679e-13 20
Ar 10 1.64752e-13 30
Ar 10 1.64752e-13 40
Ar 10 1.64679e-13 50
Ar 10 1.64068e-13 60
Ar 10 1.52349e-13 70
Ar 10 10 1.64068e-13
Ar 10 10 10
Ar 10 10 20
Ar 10 10 30
Ar 10 10 40
Ar 10 10 50
Ar 10 10 60
Ar 10 10 70
Ar 10 20 1.64679e-13
Ar 10 20 10
Ar 10 20 20
Ar 10 20 30
Ar 10 20 40
Ar 10 20 50
Ar 10 20 60
Ar 10 20 70
Ar 10 30 1.64752e-13
Ar 10 30 10
Ar 10 30 20
Ar 10 30 30
Ar 10 30 40
Ar 10 30 50
Ar 10 30 60
Ar 10 30 70
Ar 10 40 1.64752e-13
Ar 10 40 10
Ar 10 40 20
Ar 10 40 30
Ar 10 40 40
Ar 10 40 50
Ar 10 40 60
Ar 10 40 70
Ar 10 50 1.64679e-13
Ar 10 50 10
Ar 10 50 20
Ar 10 50 30
Ar 10 50 40
Ar 10 50 50
Ar 10 50 60
Ar 10 50 70
Ar 10 60 1.64068e-13
Ar 10 60 10
Ar 10 60 20
Ar 10 60 30
Ar 10 60 40
Ar 10 60 50
Ar 10 60 60
Ar 10 60 70
Ar 10 70 1.52349e-13
Ar 10 70 10
Ar 10 70 20
Ar 10 70 30
Ar 10 70 40
Ar 10 70 50
Ar 10 70 60
Ar 10 70 70
Ar 20 1.52815e-13 1.52815e-13
Ar 20 1.64679e-13 10
Ar 20 1.65326e-13 20
Ar 20 1.65407e-13 30
Ar 20 1.65407e-13 40
Ar 20 1.65326e-13 50
Ar 20 1.64679e-13 60
Ar 20 1.52815e-13 70
Ar 20 10 1.64679e-13
Ar 20 10 10
Ar 20 10 20
Ar 20 10 30
Ar 20 10 40
Ar 20 10 50
Ar 20 10 60
Ar 20 10 70
Ar 20 20 1.65326e-13
Ar 20 20 10
Ar 20 20 20
Ar 20 20 30
Ar 20 20 40
Ar 20 20 50
Ar 20 20 60
Ar 20 20 70
Ar 20 30 1.65407e-13
Ar 20 30 10
Ar 20 30 20
Ar 20 30 30
Ar 20 30 40
Ar 20 30 50
Ar 20 30 60
Ar 20 30 70
Ar 20 40 1.65407e-13
Ar 20 40 10
Ar 20 40 20
Ar 20 40 30
Ar 20 40 40
Ar 20 40 50
Ar 20 40 60
Ar 20 40 70
Ar 20 50 1.65326e-13
Ar 20 50 10
Ar 20 50 20
Ar 20 50 30
Ar 20 50 40
Ar 20 50 50
Ar 20 50 60
Ar 20 50 70
Ar 20 60 1.64679e-13
Ar 20 60 10
Ar 20 60 20
Ar 20 60 30
Ar 20 60 40
Ar 20 60 50
Ar 20 60 60
Ar 20 60 70
Ar 20 70 1.52815e-13
Ar 20 70 10
Ar 20 70 20
Ar 20 70 30
Ar 20 70 40
Ar 20 70 50
Ar 20 70 60
Ar 20 70 70
Ar 30 1.52871e-13 1.52871e-13
Ar 30 1.64752e-13 10
Ar 30 1.65407e-13 20
Ar 30 1.65492e-13 30
Ar 30 1.65492e-13 40
Ar 30 1.65407e-13 50
Ar 30 1.64752e-13 60
Ar 30 1.52871e-13 70
Ar 30 10 1.64752e-13
Ar 30 10 10
Ar 30 10 20
Ar 30 10 30
Ar 30 10 40
Ar 30 10 50
Ar 30 10 60
Ar 30 10 70
Ar 30 20 1.65407e-13
Ar 30 20 10
Ar 30 20 20
Ar 30 20 30
Ar 30 20 40
Ar 30 20 50
Ar 30 20 60
Ar 30 20 70
Ar 30 30 1.65492e-13
Ar 30 30 10
Ar 30 30 20
Ar 30 30 30
Ar 30 30 40
Ar 30 30 50
Ar 30 30 60
Ar 30 30 70
Ar 30 40 1.65492e-13
Ar 30 40 10
Ar 30 40 20
Ar 30 40 30
Ar 30 40 40
Ar 30 40 50
Ar 30 40 60
Ar 30 40 70
Ar 30 50 1.65407e-13
Ar 30 50 10
Ar 30 50 20
Ar 30 50 30
Ar 30 50 40
Ar 30 50 50
Ar 30 50 60
Ar 30 50 70
Ar 30 60 1.64752e-13
Ar 30 60 10
Ar 30 60 20
Ar 30 60 30
Ar 30 60 40
Ar 30 60 50
Ar 30 60 60
Ar 30 60 70
Ar 30 70 1.52871e-13
Ar 30 70 10
Ar 30 70 20
Ar 30 70 30
Ar 30 70 40
Ar 30 70 50
Ar 30 70 60
Ar 30 70 70
Ar 40 1.52871e-13 1.52871e-13
Ar 40 1.64752e-13 10
Ar 40 1.65407e-13 20
Ar 40 1.65492e-13 30
Ar 40 1.65492e-13 40
Ar 40 1.65407e-13 50
Ar 40 1.64752e-13 60
Ar 40 1.52871e-13 70
Ar 40 10 1.64752e-13
Ar 40 10 10
Ar 40 10 20
Ar 40 10 30
Ar 40 10 40
Ar 40 10 50
Ar 40 10 60
Ar 40 10 70
Ar 40 20 1.65407e-13
Ar 40 20 10
Ar 40 20 20
Ar 40 20 30
Ar 40 20 40
Ar 40 20 50
Ar 40 20 60
Ar 40 20 70
Ar 40 30 1.65492e-13
Ar 40 30 10
Ar 40 30 20
Ar 40 30 30
Ar 40 30 40
Ar 40 30 50
Ar 40 30 60
Ar 40 30 70
Ar 40 40 1.65492e-13
Ar 40 40 10
Ar 40 40 20
Ar 40 40 30
Ar 40 40 40
Ar 40 40 50
Ar 40 40 60
Ar 40 40 70
Ar 40 50 1.65407e-13
Ar 40 50 10
Ar 40 50 20
Ar 40 50 30
Ar 40 50 40
Ar 40 50 50
Ar 40 50 60
Ar 40 50 70
Ar 40 60 1.64752e-13
Ar 40 60 10
Ar 40 60 20
Ar 40 60 30
Ar 40 60 40
Ar 40 60 50
Ar 40 60 60
Ar 40 60 70
Ar 40 70 1.52871e-13
Ar 40 70 10
Ar 40 70 20
Ar 40 70 30
Ar 40 70 40
Ar 40 70 50
Ar 40 70 60
Ar 40 70 70
Ar 50 1.52815e-13 1.52815e-13
Ar 50 1.64679e-13 10
Ar 50 1.65326e-13 20
Ar 50 1.65407e-13 30
Ar 50 1.65407e-13 40
Ar 50 1.65326e-13 50
Ar 50 1.64679e-13 60
Ar 50 1.52815e-13 70
Ar 50 10 1.64679e-13
Ar 50 10 10
Ar 50 10 20
Ar 50 10 30
Ar 50 10 40
Ar 50 10 50
Ar 50 10 60
Ar 50 10 70
Ar 50 20 1.65326e-13
Ar 50 20 10
Ar 50 20 20
Ar 50 20 30
Ar 50 20 40
Ar 50 20 50
Ar 50 20 60
Ar 50 20 70
Ar 50 30 1.65407e-13
Ar 50 30 10
Ar 50 30 20
Ar 50 30 30
Ar 50 30 40
Ar 50 30 50
Ar 50 30 60
Ar 50 30 70
Ar 50 40 1.65407e-13
Ar 50 40 10
Ar 50 40 20
Ar 50 40 30
Ar 50 40 40
Ar 50 40 50
Ar 50 40 60
Ar 50 40 70
Ar 50 50 1.65326e-13
Ar 50 50 10
Ar 50 50 20
Ar 50 50 30
Ar 50 50 40
Ar 50 50 50
Ar 50 50 60
Ar 50 50 70
Ar 50 60 1.64679e-13
Ar 50 60 10
Ar 50 60 20
Ar 50 60 30
Ar 50 60 40
Ar 50 60 50
Ar 50 60 60
Ar 50 60 70
Ar 50 70 1.52815e-13
Ar 50 70 10
Ar 50 70 20
Ar 50 70 30
Ar 50 70 40
Ar 50 70 50
Ar 50 70 60
Ar 50 70 70
Ar 60 1.52349e-13 1.52349e-13
Ar 60 1.64068e-13 10
Ar 60 1.64679e-13 20
Ar 60 1.64752e-13 30
Ar 60 1.64752e-13 40
Ar 60 1.64679e-13 50
Ar 60 1.64068e-13 60
Ar 60 1.52349e-13 70
Ar 60 10 1.64068e-13
Ar 60 10 10
Ar 60 10 20
Ar 60 10 30
Ar 60 10 40
Ar 60 10 50
Ar 60 10 60
Ar 60 10 70
Ar 60 20 1.64679e-13
Ar 60 20 10
Ar 60 20 20
Ar 60 20 30
Ar 60 20 40
Ar 60 20 50
Ar 60 20 60
Ar 60 20 70
Ar 60 30 1.64752e-13
Ar 60 30 10
Ar 60 30 20
Ar 60 30 30
Ar 60 30 40
Ar 60 30 50
Ar 60 30 60
Ar 60 30 70
Ar 60 40 1.64752e-13
Ar 60 40 10
Ar 60 40 20
Ar 60 40 30
Ar 60 40 40
Ar 60 40 50
Ar 60 40 60
Ar 60 40 70
Ar 60 50 1.64679e-13
Ar 60 50 10
Ar 60 50 20
Ar 60 50 30
Ar 60 50 40
Ar 60 50 50
Ar 60 50 60
Ar 60 50 70
Ar 60 60 1.64068e-13
Ar 60 60 10
Ar 60 60 20
Ar 60 60 30
Ar 60 60 40
Ar 60 60 50
Ar 60 60 60
Ar 60 60 70
Ar 60 70 1.52349e-13
Ar 60 70 10
Ar 60 70 20
Ar 60 70 30
Ar 60 70 40
Ar 60 70 50
Ar 60 70 60
Ar 60 70 70
Ar 70 1.42362e-13 1.42362e-13
Ar 70 1.52349e-13 10
Ar 70 1.52815e-13 20
Ar 70 1.52871e-13 30
Ar 70 1.52871e-13 40
Ar 70 1.52815e-13 50
Ar 70 1.52349e-13 60
Ar 70 1.42362e-13 70
Ar 70 10 1.52349e-13
Ar 70 10 10
Ar 70 10 20
Ar 70 10 30
Ar 70 10 40
Ar 70 10 50
Ar 70 10 60
Ar 70 10 70
Ar 70 20 1.52815e-13
Ar 70 20 10
Ar 70 20 20
Ar 70 20 30
Ar 70 20 40
Ar 70 20 50
Ar 70 20 60
Ar 70 20 70
Ar 70 30 1.52871e-13
Ar 70 30 10
Ar 70 30 20
Ar 70 30 30
Ar 70 30 40
Ar 70 30 50
Ar 70 30 60
Ar 70 30 70
Ar 70 40 1.52871e-13
Ar 70 40 10
Ar 70 40 20
Ar 70 40 30
Ar 70 40 40
Ar 70 40 50
Ar 70 40 60
Ar 70 40 70
Ar 70 50 1.52815e-13
Ar 70 50 10
Ar 70 50 20
Ar 70 50 30
Ar 70 50 40
Ar 70 50 50
Ar 70 50 60
Ar 70 50 70
Ar 70 60 1.52349e-13
Ar 70 60 10
Ar 70 60 20
Ar 70 60 30
Ar 70 60 40
Ar 70 60 50
Ar 70 60 60
Ar 70 60 70
Ar 70 70 1.42362e-13
Ar 70 70 10
Ar 70 70 20
Ar 70 70 30
Ar 70 70 40
Ar 70 70 50
Ar 70 70 60
Ar 70 70 70
512
Step: 200
Ar 5.63823e-13 5.63823e-13 5.63823e-13
Ar 6.03379e-13 6.03379e-13 10
Ar 6.05224e-13 6.05224e-13 20
Ar 6.05444e-13 6.05444e-13 30
Ar 6.05444e-13 6.05444e-13 40
Ar 6.05224e-13 6.05224e-13 50
Ar 6.03379e-13 6.03379e-13 60
Ar 5.63823e-13 5.63823e-13 70
Ar 6.03379e-13 10 6.03379e-13
Ar 6.49792e-13 10 10
Ar 6.52209e-13 10 20
Ar 6.52501e-13 10 30
Ar 6.52501e-13 10 40
Ar 6.52209e-13 10 50
Ar 6.49792e-13 10 60
Ar 6.03379e-13 10 70
Ar 6.05224e-13 20 6.05224e-13
Ar 6.52209e-13 20 10
Ar 6.54771e-13 20 20
Ar 6.55095e-13 20 30
Ar 6.55095e-13 20 40
Ar 6.54771e-13 20 50
Ar 6.52209e-13 20 60
Ar 6.05224e-13 20 70
Ar 6.05444e-13 30 6.05444e-13
Ar 6.52501e-13 30 10
Ar 6.55095e-13 30 20
Ar 6.55428e-13 30 30
Ar 6.55428e-13 30 40
Ar 6.55095e-13 30 50
Ar 6.52501e-13 30 60
Ar 6.05444e-13 30 70
Ar 6.05444e-13 40 6.05444e-13
Ar 6.52501e-13 40 10
Ar 6.55095e-13 40 20
Ar 6.55428e-13 40 30
Ar 6.55428e-13 40 40
Ar 6.55095e-13 40 50
Ar 6.52501e-13 40 60
Ar 6.05444e-13 40 70
Ar 6.05224e-13 50 6.05224e-13
Ar 6.52209e-13 50 10
Ar 6.54771e-13 50 20
Ar 6.55095e-13 50 30
Ar 6.55095e-13 50 40
Ar 6.54771e-13 50 50
Ar 6.52209e-13 50 60
Ar 6.05224e-13 50 70
Ar 6.03379e-13 60 6.03379e-13
Ar 6.49792e-13 60 10
Ar 6.52209e-13 60 20
Ar 6.52501e-13 60 30
Ar 6.52501e-13 60 40
Ar 6.52209e-13 60 50
Ar 6.49792e-13 60 60
Ar 6.03379e-13 60 70
Ar 5.63823e-13 70 5.63823e-13
Ar 6.03379e-13 70 10
Ar 6.05224e-13 70 20
Ar 6.05444e-13 70 30
Ar 6.05444e-13 70 40
Ar 6.05224e-13 70 50
Ar 6.03379e-13 70 60
Ar 5.63823e-13 70 70
Ar 10 6.03379e-13 6.03379e-13
Ar 10 6.49792e-13 10
Ar 10 6.52209e-13 20
Ar 10 6.52501e-13 30
Ar 10 6.52501e-13 40
Ar 10 6.52209e-13 50
Ar 10 6.49792e-13 60
Ar 10 6.03379e-13 70
Ar 10 10 6.49792e-13
Ar 10 10 10
Ar 10 10 20
Ar 10 10 30
Ar 10 10 40
Ar 10 10 50
Ar 10 10 60
Ar 10 10 70
Ar 10 20 6.52209e-13
Ar 10 20 10
Ar 10 20 20
Ar 10 20 30
Ar 10 20 40
Ar 10 20 50
Ar 10 20 60
Ar 10 20 70
Ar 10 30 6.52501e-13
Ar 10 30 10
Ar 10 30 20
Ar 10 30 30
Ar 10 30 40
Ar 10 30 50
Ar 10 30 60
Ar 10 30 70
Ar 10 40 6.52501e-13
Ar 10 40 10
Ar 10 40 20
Ar 10 40 30
Ar 10 40 40
Ar 10 40 50
Ar 10 40 60
Ar 10 40 70
Ar 10 50 6.52209e-13
Ar 10 50 10
Ar 10 50 20
Ar 10 50 30
Ar 10 50 40
Ar 10 50 50
Ar 10 50 60
Ar 10 50 70
Ar 10 60 6.49792e-13
Ar 10 60 10
Ar 10 60 20
Ar 10 60 30
Ar 10 60 40
Ar 10 60 50
Ar 10 60 60
Ar 10 60 70
Ar 10 70 6.03379e-13
Ar 10 70 10
Ar 10 70 20
Ar 10 70 30
Ar 10 70 40
Ar 10 70 50
Ar 10 70 60
Ar 10 70 70
Ar 20 6.05224e-13 6.05224e-13
Ar 20 6.52209e-13 10
Ar 20 6.54771e-13 20
Ar 20 6.55095e-13 30
Ar 20 6.55095e-13 40
Ar 20 6.54771e-13 50
Ar 20 6.52209e-13 60
Ar 20 6.05224e-13 70
Ar 20 10 6.52209e-13
Ar 20 10 10
Ar 20 10 20
Ar 20 10 30
Ar 20 10 40
Ar 20 10 50
Ar 20 10 60
Ar 20 10 70
Ar 20 20 6.54771e-13
Ar 20 20 10
Ar 20 20 20
Ar 20 20 30
Ar 20 20 40
Ar 20 20 50
Ar 20 20 60
Ar 20 20 70
Ar 20 30 6.55095e-13
Ar 20 30 10
Ar 20 30 20
Ar 20 30 30
Ar 20 30 40
Ar 20 30 50
Ar 20 30 60
Ar 20 30 70
Ar 20 40 6.55095e-13
Ar 20 40 10
Ar 20 40 20
Ar 20 40 30
Ar 20 40 40
Ar 20 40 50
Ar 20 40 60
Ar 20 40 70
Ar 20 50 6.54771e-13
Ar 20 50 10
Ar 20 50 20
Ar 20 50 30
Ar 20 50 40
Ar 20 50 50
Ar 20 50 60
Ar 20 50 70
Ar 20 60 6.52209e-13
Ar 20 60 10
Ar 20 60 20
Ar 20 60 30
Ar 20 60 40
Ar 20 60 50
Ar 20 60 60
Ar 20 60 70
Ar 20 70 6.05224e-13
Ar 20 70 10
Ar 20 70 20
Ar 20 70 30
Ar 20 70 40
Ar 20 70 50
Ar 20 70 60
Ar 20 70 70
Ar 30 6.05444e-13 6.05444e-13
Ar 30 6.52501e-13 10
Ar 30 6.55095e-13 20
Ar 30 6.55428e-13 30
Ar 30 6.55428e-13 40
Ar 30 6.55095e-13 50
Ar 30 6.52501e-13 60
Ar 30 6.05444e-13 70
Ar 30 10 6.52501e-13
Ar 30 10 10
Ar 30 10 20
Ar 30 10 30
Ar 30 10 40
Ar 30 10 50
Ar 30 10 60
Ar 30 10 70
Ar 30 20 6.55095e-13
Ar 30 20 10
Ar 30 20 20
Ar 30 20 30
Ar 30 20 40
Ar 30 20 50
Ar 30 20 60
Ar 30 20 70
Ar 30 30 6.55428e-13
Ar 30 30 10
Ar 30 30 20
Ar 30 30 30
Ar 30 30 40
Ar 30 30 50
Ar 30 30 60
Ar 30 30 70
Ar 30 40 6.55428e-13
Ar 30 40 10
Ar 30 40 20
Ar 30 40 30
Ar 30 40 40
Ar 30 40 50
Ar 30 40 60
Ar 30 40 70
Ar 30 50 6.55095e-13
Ar 30 50 10
Ar 30 50 20
Ar 30 50 30
Ar 30 50 40
Ar 30 50 50
Ar 30 50 60
Ar 30 50 70
Ar 30 60 6.52501e-13
Ar 30 60 10
Ar 30 60 20
Ar 30 60 30
Ar 30 60 40
Ar 30 60 50
Ar 30 60 60
Ar 30 60 70
Ar 30 70 6.05444e-13
Ar 30 70 10
Ar 30 70 20
Ar 30 70 30
Ar 30 70 40
Ar 30 70 50
Ar 30 70 60
Ar 30 70 70
Ar 40 6.05444e-13 6.05444e-13
Ar 40 6.52501e-13 10
Ar 40 6.55095e-13 20
Ar 40 6.55428e-13 30
Ar 40 6.55428e-13 40
Ar 40 6.55095e-13 50
Ar 40 6.52501e-13 60
Ar 40 6.05444e-13 70
Ar 40 10 6.52501e-13
Ar 40 10 10
Ar 40 10 20
Ar 40 10 30
Ar 40 10 40
Ar 40 10 50
Ar 40 10 60
Ar 40 10 70
Ar 40 20 6.55095e-13
Ar 40 20 10
Ar 40 20 20
Ar 40 20 30
Ar 40 20 40
Ar 40 20 50
Ar 40 20 60
Ar 40 20 70
Ar 40 30 6.55428e-13
Ar 40 30 10
Ar 40 30 20
Ar 40 30 30
Ar 40 30 40
Ar 40 30 50
Ar 40 30 60
Ar 40 30 70
Ar 40 40 6.55428e-13
Ar 40 40 10
Ar 40 40 20
Ar 40 40 30
Ar 40 40 40
Ar 40 40 50
Ar 40 40 60
Ar 40 40 70
Ar 40 50 6.55095e-13
Ar 40 50 10
Ar 40 50 20
Ar 40 50 30
Ar 40 50 40
Ar 40 50 50
Ar 40 50 60
Ar 40 50 70
Ar 40 60 6.52501e-13
Ar 40 60 10
Ar 40 60 20
Ar 40 60 30
Ar 40 60 40
Ar 40 60 50
Ar 40 60 60
Ar 40 60 70
Ar 40 70 6.05444e-13
Ar 40 70 10
Ar 40 70 20
Ar 40 70 30
Ar 40 70 40
Ar 40 70 50
Ar 40 70 60
Ar 40 70 70
Ar 50 6.05224e-13 6.05224e-13
Ar 50 6.52209e-13 10
Ar 50 6.54771e-13 20
Ar 50 6.55095e-13 30
Ar 50 6.55095e-13 40
Ar 50 6.54771e-13 50
Ar 50 6.52209e-13 60
Ar 50 6.05224e-13 70
Ar 50 10 6.52209e-13
Ar 50 10 10
Ar 50 10 20
Ar 50 10 30
Ar 50 10 40
Ar 50 10 50
Ar 50 10 60
Ar 50 10 70
Ar 50 20 6.54771e-13
Ar 50 20 10
Ar 50 20 20
Ar 50 20 30
Ar 50 20 40
Ar 50 20 50
Ar 50 20 60
Ar 50 20 70
Ar 50 30 6.55095e-13
Ar 50 30 10
Ar 50 30 20
Ar 50 30 30
Ar 50 30 40
Ar 50 30 50
Ar 50 30 60
Ar 50 30 70
Ar 50 40 6.55095e-13
Ar 50 40 10
Ar 50 40 20
Ar 50 40 30
Ar 50 40 40
Ar 50 40 50
Ar 50 40 60
Ar 50 40 70
Ar 50 50 6.54771e-13
Ar 50 50 10
Ar 50 50 20
Ar 50 50 30
Ar 50 50 40
Ar 50 50 50
Ar 50 50 60
Ar 50 50 70
Ar 50 60 6.52209e-13
Ar 50 60 10
Ar 50 60 20
Ar 50 60 30
Ar 50 60 40
Ar 50 60 50
Ar 50 60 60
Ar 50 60 70
Ar 50 70 6.05224e-13
Ar 50 70 10
Ar 50 70 20
Ar 50 70 30
Ar 50 70 40
Ar 50 70 50
Ar 50 70 60
Ar 50 70 70
Ar 60 6.03379e-13 6.03379e-13
Ar 60 6.49792e-13 10
Ar 60 6.52209e-13 20
Ar 60 6.52501e-13 30
Ar 60 6.52501e-13 40
Ar 60 6.52209e-13 50
Ar 60 6.49792e-13 60
Ar 60 6.03379e-13 70
Ar 60 10 6.49792e-13
Ar 60 10 10
Ar 60 10 20
Ar 60 10 30
Ar 60 10 40
Ar 60 10 50
Ar 60 10 60
Ar 60 10 70
Ar 60 20 6.52209e-13
Ar 60 20 10
Ar 60 20 20
Ar 60 20 30
Ar 60 20 40
Ar 60 20 50
Ar 60 20 60
Ar 60 20 70
Ar 60 30 6.52501e-13
Ar 60 30 10
Ar 60 30 20
Ar 60 30 30
Ar 60 30 40
Ar 60 30 50
Ar 60 30 60
Ar 60 30 70
Ar 60 40 6.52501e-13
Ar 60 40 10
Ar 60 40 20
Ar 60 40 30
Ar 60 40 40
Ar 60 40 50
Ar 60 40 60
Ar 60 40 70
Ar 60 50 6.52209e-13
Ar 60 50 10
Ar 60 50 20
Ar 60 50 30
Ar 60 50 40
Ar 60 50 50
Ar 60 50 60
Ar 60 50 70
Ar 60 60 6.49792e-13
Ar 60 60 10
Ar 60 60 20
Ar 60 60 30
Ar 60 60 40
Ar 60 60 50
Ar 60 60 60
Ar 60 60 70
Ar 60 70 6.03379e-13
Ar 60 70 10
Ar 60 70 20
Ar 60 70 30
Ar 60 70 40
Ar 60 70 50
Ar 60 70 60
Ar 60 70 70
Ar 70 5.63823e-13 5.63823e-13
Ar 70 6.03379e-13 10
Ar 70 6.05224e-13 20
Ar 70 6.05444e-13 30
Ar 70 6.05444e-13 40
Ar 70 6.05224e-13 50
Ar 70 6.03379e-13 60
Ar 70 5.63823e-13 70
Ar 70 10 6.03379e-13
Ar 70 10 10
Ar 70 10 20
Ar 70 10 30
Ar 70 10 40
Ar 70 10 50
Ar 70 10 60
Ar 70 10 70
Ar 70 20 6.05224e-13
Ar 70 20 10
Ar 70 20 20
Ar 70 20 30
Ar 70 20 40
Ar 70 20 50
Ar 70 20 60
Ar 70 20 70
Ar 70 30 6.05444e-13
Ar 70 30 10
Ar 70 30 20
Ar 70 30 30
Ar 70 30 40
Ar 70 30 50
Ar 70 30 60
Ar 70 30 70
Ar 70 40 6.05444e-13
Ar 70 40 10
Ar 70 40 20
Ar 70 40 30
Ar 70 40 40
Ar 70 40 50
Ar 70 40 60
Ar 70 40 70
Ar 70 50 6.05224e-13
Ar 70 50 10
Ar 70 50 20
Ar 70 50 30
Ar 70 50 40
Ar 70 50 50
Ar 70 50 60
Ar 70 50 70
Ar 70 60 6.03379e-13
Ar 70 60 10
Ar 70 60 20
Ar 70 60 30
Ar 70 60 40
Ar 70 60 50
Ar 70 60 60
Ar 70 60 70
Ar 70 70 5.63823e-13
Ar 70 70 10
Ar 70 70 20
Ar 70 70 30
Ar 70 70 40
Ar 70 70 50
Ar 70 70 60
Ar 70 70 70
512
Step: 300
Ar 1.2644e-12 1.2644e-12 1.2644e-12
Ar 1.3531e-12 1.3531e-12 10
Ar 1.35724e-12 1.35724e-12 20
Ar 1.35774e-12 1.35774e-12 30
Ar 1.35774e-12 1.35774e-12 40
Ar 1.35724e-12 1.35724e-12 50
Ar 1.3531e-12 1.3531e-12 60
Ar 1.2644e-12 1.2644e-12 70
Ar 1.3531e-12 10 1.3531e-12
Ar 1.45719e-12 10 10
Ar 1.46261e-12 10 20
Ar 1.46326e-12 10 30
Ar 1.46326e-12 10 40
Ar 1.46261e-12 10 50
Ar 1.45719e-12 10 60
Ar 1.3531e-12 10 70
Ar 1.35724e-12 20 1.35724e-12
Ar 1.46261e-12 20 10
Ar 1.46835e-12 20 20
Ar 1.46908e-12 20 30
Ar 1.46908e-12 20 40
Ar 1.46835e-12 20 50
Ar 1.46261e-12 20 60
Ar 1.35724e-12 20 70
Ar 1.35774e-12 30 1.35774e-12
Ar 1.46326e-12 30 10
Ar 1.46908e-12 30 20
Ar 1.46983e-12 30 30
Ar 1.46983e-12 30 40
Ar 1.46908e-12 30 50
Ar 1.46326e-12 30 60
Ar 1.35774e-12 30 70
Ar 1.35774e-12 40 1.35774e-12
Ar 1.46326e-12 40 10
Ar 1.46908e-12 40 20
Ar 1.46983e-12 40 30
Ar 1.46983e-12 40 40
Ar 1.46908e-12 40 50
Ar 1.46326e-12 40 60
Ar 1.35774e-12 40 70
Ar 1.35724e-12 50 1.35724e-12
Ar 1.46261e-12 50 10
Ar 1.46835e-12 50 20
Ar 1.46908e-12 50 30
Ar 1.46908e-12 50 40
Ar 1.46835e-12 50 50
Ar 1.46261e-12 50 60
Ar 1.35724e-12 50 70
Ar 1.3531e-12 60 1.3531e-12
Ar 1.45719e-12 60 10
Ar 1.46261e-12 60 20
Ar 1.46326e-12 60 30
Ar 1.46326e-12 60 40
Ar 1.46261e-12 60 50
Ar 1.45719e-12 60 60
Ar 1.3531e-12 60 70
Ar 1.2644e-12 70 1.2644e-12
Ar 1.3531e-12 70 10
Ar 1.35724e-12 70 20
Ar 1.35774e-12 70 30
Ar 1.35774e-12 70 40
Ar 1.35724e-12 70 50
Ar 1.3531e-12 70 60
Ar 1.2644e-12 70 70
Ar 10 1.3531e-12 1.3531e-12
Ar 10 1.45719e-12 10
Ar 10 1.46261e-12 20
Ar 10 1.46326e-12 30
Ar 10 1.46326e-12 40
Ar 10 1.46261e-12 50
Ar 10 1.45719e-12 60
Ar 10 1.3531e-12 70
Ar 10 10 1.45719e-12
Ar 10 10 10
Ar 10 10 20
Ar 10 10 30
Ar 10 10 40
Ar 10 10 50
Ar 10 10 60
Ar 10 10 70
Ar 10 20 1.46261e-12
Ar 10 20 10
Ar 10 20 20
Ar 10 20 30
Ar 10 20 40
Ar 10 20 50
Ar 10 20 60
Ar 10 20 70
Ar 10 30 1.46326e-12
Ar 10 30 10
Ar 10 30 20
Ar 10 30 30
Ar 10 30 40
Ar 10 30 50
Ar 10 30 60
Ar 10 30 70
Ar 10 40 1.46326e-12
Ar 10 40 10
Ar 10 40 20
Ar 10 40 30
Ar 10 40 40
Ar 10 40 50
Ar 10 40 60
Ar 10 40 70
Ar 10 50 1.46261e-12
Ar 10 50 10
Ar 10 50 20
Ar 10 50 30
Ar 10 50 40
Ar 10 50 50
Ar 10 50 60
Ar 10 50 70
Ar 10 60 1.45719e-12
Ar 10 60 10
Ar 10 60 20
Ar 10 60 30
Ar 10 60 40
Ar 10 60 50
Ar 10 60 60
Ar 10 60 70
Ar 10 70 1.3531e-12
Ar 10 70 10
Ar 10 70 20
Ar 10 70 30
Ar 10 70 40
Ar 10 70 50
Ar 10 70 60
Ar 10 70 70
Ar 20 1.35724e-12 1.35724e-12
Ar 20 1.46261e-12 10
Ar 20 1.46835e-12 20
Ar 20 1.46908e-12 30
Ar 20 1.46908e-12 40
Ar 20 1.46835e-12 50
Ar 20 1.46261e-12 60
Ar 20 1.35724e-12 70
Ar 20 10 1.46261e-12
Ar 20 10 10
Ar 20 10 20
Ar 20 10 30
Ar 20 10 40
Ar 20 10 50
Ar 20 10 60
Ar 20 10 70
Ar 20 20 1.46835e-12
Ar 20 20 10
Ar 20 20 20
Ar 20 20 30
Ar 20 20 40
Ar 20 20 50
Ar 20 20 60
Ar 20 20 70
Ar 20 30 1.46908e-12
Ar 20 30 10
Ar 20 30 20
Ar 20 30 30
Ar 20 30 40
Ar 20 30 50
Ar 20 30 60
Ar 20 30 70
Ar 20 40 1.46908e-12
Ar 20 40 10
Ar 20 40 20
Ar 20 40 30
Ar 20 40 40
Ar 20 40 50
Ar 20 40 60
Ar 20 40 70
Ar 20 50 1.46835e-12
Ar 20 50 10
Ar 20 50 20
Ar 20 50 30
Ar 20 50 40
Ar 20 50 50
Ar 20 50 60
Ar 20 50 70
Ar 20 60 1.46261e-12
Ar 20 60 10
Ar 20 60 20
Ar 20 60 30
Ar 20 60 40
Ar 20 60 50
Ar 20 60 60
Ar 20 60 70
Ar 20 70 1.35724e-12
Ar 20 70 10
Ar 20 70 20
Ar 20 70 30
Ar 20 70 40
Ar 20 70 50
Ar 20 70 60
Ar 20 70 70
Ar 30 1.35774e-12 1.35774e-12
Ar 30 1.46326e-12 10
Ar 30 1.46908e-12 20
Ar 30 1.46983e-12 30
Ar 30 1.46983e-12 40
Ar 30 1.46908e-12 50
Ar 30 1.46326e-12 60
Ar 30 1.35774e-12 70
Ar 30 10 1.46326e-12
Ar 30 10 10
Ar 30 10 20
Ar 30 10 30
Ar 30 10 40
Ar 30 10 50
Ar 30 10 60
Ar 30 10 70
Ar 30 20 1.46908e-12
Ar 30 20 10
Ar 30 20 20
Ar 30 20 30
Ar 30 20 40
Ar 30 20 50
Ar 30 20 60
Ar 30 20 70
Ar 30 30 1.46983e-12
Ar 30 30 10
Ar 30 30 20
Ar 30 30 30
Ar 30 30 40
Ar 30 30 50
Ar 30 30 60
Ar 30 30 70
Ar 30 40 1.46983e-12
Ar 30 40 10
Ar 30 40 20
Ar 30 40 30
Ar 30 40 40
Ar 30 40 50
Ar 30 40 60
Ar 30 40 70
Ar 30 50 1.46908e-12
Ar 30 50 10
Ar 30 50 20
Ar 30 50 30
Ar 30 50 40
Ar 30 50 50
Ar 30 50 60
Ar 30 50 70
Ar 30 60 1.46326e-12
Ar 30 60 10
Ar 30 60 20
Ar 30 60 30
Ar 30 60 40
Ar 30 60 50
Ar 30 60 60
Ar 30 60 70
Ar 30 70 1.35774e-12
Ar 30 70 10
Ar 30 70 20
Ar 30 70 30
Ar 30 70 40
Ar 30 70 50
Ar 30 70 60
Ar 30 70 70
Ar 40 1.35774e-12 1.35774e-12
Ar 40 1.46326e-12 10
Ar 40 1.46908e-12 20
Ar 40 1.46983e-12 30
Ar 40 1.46983e-12 40
Ar 40 1.46908e-12 50
Ar 40 1.46326e-12 60
Ar 40 1.35774e-12 70
Ar 40 10 1.46326e-12
Ar 40 10 10
Ar 40 10 20
Ar 40 10 30
Ar 40 10 40
Ar 40 10 50
Ar 40 10 60
Ar 40 10 70
Ar 40 20 1.46908e-12
Ar 40 20 10
Ar 40 20 20
Ar 40 20 30
Ar 40 20 40
Ar 40 20 50
Ar 40 20 60
Ar 40 20 70
Ar 40 30 1.46983e-12
Ar 40 30 10
Ar 40 30 20
Ar 40 30 30
Ar 40 30 40
Ar 40 30 50
Ar 40 30 60
Ar 40 30 70
Ar 40 40 1.46983e-12
Ar 40 40 10
Ar 40 40 20
Ar 40 40 30
Ar 40 40 40
Ar 40 40 50
Ar 40 40 60
Ar 40 40 70
Ar 40 50 1.46908e-12
Ar 40 50 10
Ar 40 50 20
Ar 40 50 30
Ar 40 50 40
Ar 40 50 50
Ar 40 50 60
Ar 40 50 70
Ar 40 60 1.46326e-12
Ar 40 60 10
Ar 40 60 20
Ar 40 60 30
Ar 40 60 40
Ar 40 60 50
Ar 40 60 60
Ar 40 60 70
Ar 40 70 1.35774e-12
Ar 40 70 10
Ar 40 70 20
Ar 40 70 30
Ar 40 70 40
Ar 40 70 50
Ar 40 70 60
Ar 40 70 70
Ar 50 1.35724e-12 1.35724e-12
Ar 50 1.46261e-12 10
Ar 50 1.46835e-12 20
Ar 50 1.46908e-12 30
Ar 50 1.46908e-12 40
Ar 50 1.46835e-12 50
Ar 50 1.46261e-12 60
Ar 50 1.35724e-12 70
Ar 50 10 1.46261e-12
Ar 50 10 10
Ar 50 10 20
Ar 50 10 30
Ar 50 10 40
Ar 50 10 50
Ar 50 10 60
Ar 50 10 70
Ar 50 20 1.46835e-12
Ar 50 20 10
Ar 50 20 20
Ar 50 20 30
Ar 50 20 40
Ar 50 20 50
Ar 50 20 60
Ar 50 20 70
Ar 50 30 1.46908e-12
Ar 50 30 10
Ar 50 30 20
Ar 50 30 30
Ar 50 30 40
Ar 50 30 50
Ar 50 30 60
Ar 50 30 70
Ar 50 40 1.46908e-12
Ar 50 40 10
Ar 50 40 20
Ar 50 40 30
Ar 50 40 40
Ar 50 40 50
Ar 50 40 60
Ar 50 40 70
Ar 50 50 1.46835e-12
Ar 50 50 10
Ar 50 50 20
Ar 50 50 30
Ar 50 50 40
Ar 50 50 50
Ar 50 50 60
Ar 50 50 70
Ar 50 60 1.46261e-12
Ar 50 60 10
Ar 50 60 20
Ar 50 60 30
Ar 50 60 40
Ar 50 60 50
Ar 50 60 60
Ar 50 60 70
Ar 50 70 1.35724e-12
Ar 50 70 10
Ar 50 70 20
Ar 50 70 30
Ar 50 70 40
Ar 50 70 50
Ar 50 70 60
Ar 50 70 70
Ar 60 1.3531e-12 1.3531e-12
Ar 60 1.45719e-12 10
Ar 60 1.46261e-12 20
Ar 60 1.46326e-12 30
Ar 60 1.46326e-12 40
Ar 60 1.46261e-12 50
Ar 60 1.45719e-12 60
Ar 60 1.3531e-12 70
Ar 60 10 1.45719e-12
Ar 60 10 10
Ar 60 10 20
Ar 60 10 30
Ar 60 10 40
Ar 60 10 50
Ar 60 10 60
Ar 60 10 70
Ar 60 20 1.46261e-12